<?xml version="1.0"?>
<VTKFile type="UnstructuredGrid"  version="0.1"  >
<UnstructuredGrid>
<Piece  NumberOfPoints="11444" NumberOfCells="45304">
<Points>
<DataArray  type="Float64"  NumberOfComponents="3"  format="ascii">4.898587196589413e-18 -5.849063152381244e-34 -0.039  0.07461912682485294 -9.084901271810272e-18 0.01406153092213489  -4.662069341687669e-18 -0.03751923525400891 0.01064457539046418  -2.049142105997603e-17 0.03751923526364197 0.01064457555869988  4.592425496802574e-18 -5.699087174115059e-34 0.079  4.225031457058369e-18 -3.749399456654644e-34 -0.025  4.225031457058369e-18 -3.749399456654644e-34 0.025  3.252606517456513e-18 0.03299950884880339 0.02078538938141659  4.286263797015737e-18 -4.94920728278413e-34 0.07507999999999999  7.589415207398531e-18 -0.03299950884852577 0.02078538938123912  4.898587196589413e-18 -5.849063152381244e-34 0.039  0.06994447637102211 -8.21392122853927e-18 0.01892963331865695  0.002789987562302247 -3.331330604388514e-19 -0.0389762758159145  0.005579166435877914 -6.661695609668026e-19 -0.03890504402500534  0.008366719004336847 -9.990118756825789e-19 -0.03878612626057653  0.01115180984334775 -1.331560252362187e-18 -0.03861922304231302  0.0139335762267558 -1.663711678860284e-18 -0.03840391041454953  0.01671111753595106 -1.995358618556322e-18 -0.03813963517378881  0.01948348483387582 -2.326387765459098e-18 -0.03782570843331434  0.02224966750764396 -2.656678449294581e-18 -0.03746129761565329  0.02500857925090393 -2.986100961757135e-18 -0.03704541645909484  0.02775904158019803 -3.314514588312311e-18 -0.03657691289351107  0.03049976425454006 -3.641765270234457e-18 -0.03605445452414433  0.03322932230303458 -3.967682861634088e-18 -0.03547651129587028  0.03594612838802798 -4.292077829533481e-18 -0.03484133494724526  0.03864839906309984 -4.614737224967491e-18 -0.03414693480258359  0.04133411416298888 -4.935419834016323e-18 -0.03339104909224149  0.04400096499320289 -5.253849991486263e-18 -0.03257111171194644  0.04664629225899055 -5.569710169438812e-18 -0.03168421264881357  0.04926700527045436 -5.882631330033677e-18 -0.0307270526509897  0.05185948059430301 -6.192180824237603e-18 -0.02969589062599806  0.05441943270727875 -6.49784694744741e-18 -0.0285864834973058  0.05694174599241214 -6.799018879328244e-18 -0.02739401945975581  0.05942025498449335 -7.094960444449735e-18 -0.0261130470431444  0.06184746158460753 -7.384776346835404e-18 -0.02473740198539544  0.06421415197742088 -7.667366428713239e-18 -0.02326015042249458  0.06650890900160286 -7.941367446050565e-18 -0.02167355603832305  0.0687174622594383 -8.20507546965114e-18 -0.01996912338824259  0.07082185073187641 -8.456345898827197e-18 -0.01813778757096663  0.07279940574774864 -8.692472024808955e-18 -0.01617035753093189  0.07462157528196499 -8.910044648348188e-18 -0.01405844266028562  0.07625284749639565 -9.104823547202387e-18 -0.01179612251745557  0.07765029700495563 -9.27168329879612e-18 -0.009382714504601947  0.07876484783748794 -9.404764081977023e-18 -0.006826719006891508  0.07954572743744454 -9.498003497981137e-18 -0.004150261509966152  0.07994903730968229 -9.546159932030937e-18 -0.001391847354962361  0.07994874899184368 -9.546125505997917e-18 0.001395777683440692  0.07954488201310739 -9.49790255172582e-18 0.004154110632425831  0.07876349726282249 -9.404602819225271e-18 0.00683042126573676  0.07764851075275406 -9.271470014812113e-18 0.009386227037149163  0.07625069735820755 -9.104566814117036e-18 0.01179942518979135  0 -0.03818022056746504 0.007954305740155928  0 -0.03864855509974245 0.00522390020786319  0 -0.03892188641791872 0.00246713731130577  0 -0.03899882924883148 -0.0003020725087484731  0 -0.03887896402879287 -0.003069759262273247  0 -0.03856297441460084 -0.005821959244728489  0 -0.03805243648944621 -0.008544789106014136  0 -0.03734987302301602 -0.01122450086874298  0 -0.03645881822738946 -0.01384756621676617  0 -0.03538379706719075 -0.01640075683450968  0 -0.03413026799585668 -0.0188712058450699  0 -0.03270456212773382 -0.02124645636048814  0 -0.03111384215246499 -0.02351450863655294  0 -0.02936609450794426 -0.0256638872189662  0 -0.02747015789501634 -0.02768375793017626  0 -0.02543566640857054 -0.02956399646143995  0 -0.02327281056869768 -0.03129503781810676  0 -0.02099250357776528 -0.03286814043908262  0 -0.0186062830753689 -0.03427540884700823  0 -0.01612620122897844 -0.03550976981890099  0 -0.01356476142910649 -0.03656498451483042  0 -0.01093487190601324 -0.03743569284698389  0 -0.008249797720786932 -0.03811747500330336  0 -0.00552309493227837 -0.03860690744153993  0 -0.00276853096061497 -0.03890157629176521  0.07442129961906707 -0.002735868612979509 0.01404452668495529  0.07384063856169554 -0.00541652171112998 0.01399481803738572  0.07291143965888851 -0.007996780691553466 0.01391590216139888  0.07167994127021046 -0.01044670163467901 0.01381251762366313  0.07019471300105133 -0.01275108925518596 0.01368967985221789  0.06850043499778609 -0.01490588527315082 0.01355204911281732  0.06663526519460906 -0.01691409783673027 0.01340366251108105  0.06463041247850951 -0.01878250079653236 0.01324787435456311  0.06251090693949674 -0.02051951380132587 0.0130874290415101  0.06029668785921218 -0.02213393221645727 0.01292456444913284  0.05800358346461304 -0.02363428964085008 0.01276110710002476  0.05564430295176707 -0.02502845992290062 0.01259856573246873  0.05322905770770656 -0.02632360061932799 0.01243819447528851  0.05076614794733186 -0.02752611733315118 0.01228105016863807  0.04826238414922472 -0.02864170839896295 0.01212803476779094  0.04572340581326107 -0.02967540621986776 0.0119799275918909  0.04315392278562238 -0.03063164841660168 0.01183739782392363  0.04055791418411307 -0.03151435198185422 0.01170103529017649  0.0379387723654758 -0.03232696815263753 0.01157136319866734  0.03529941173887202 -0.03307253673315304 0.0114488458152314  0.03264236386094627 -0.03375373116176426 0.01133389615083685  0.02996984697618595 -0.03437289986224004 0.01122688233539331  0.02728382142129683 -0.03493210153909895 0.01112813290528366  0.02458603692647746 -0.03543313456555107 0.01103794102556943  0.02187806930439135 -0.0358775623240797 0.01095656740998735  0.01916135194435416 -0.0362667343358207 0.01088424204335539  0.0164372007940764 -0.03660180429915339 0.01082116454985059  0.01370683657424483 -0.0368837451579595 0.01076750320449621  0.01097140280003407 -0.03711336055714352 0.01072340368064166  0.008231982061527135 -0.03729129543497581 0.01068898436934905  0.005489610374673075 -0.03741804394274782 0.01066433416726547  0.00274528966197085 -0.03749395471063315 0.01064951810434193  0.002745289686771168 0.03749395474526968 0.01064951870786393  0.00548961041903171 0.03741804404918428 0.01066433590487388  0.008231982112136079 0.03729129570441404 0.01068898896294343  0.01097140287132552 0.03711336081395662 0.01072340867056853  0.01370683671571194 0.03688374519420763 0.01076750426067451  0.01643720100139662 0.03660180430447196 0.01082116321454889  0.01916135214404197 0.03626673435026236 0.01088424215820151  0.02187806951995237 0.03587756249131001 0.01095656871195746  0.02458603717916241 0.03543313477987229 0.01103794216697387  0.0272838216967965 0.03493210156252859 0.01112813302302008  0.02996984724875782 0.03437289958639275 0.01122688153855944  0.03264236413765507 0.03375373078033341 0.0113338952727665  0.03529941209182916 0.03307253668542406 0.01144884575833854  0.0379387728988546 0.0323269688295729 0.01157136422145439  0.0405579149489781 0.03151435336705305 0.01170103666129025  0.04315392373108003 0.03063165014621143 0.01183739841659134  0.04572340718588708 0.02967540902666523 0.01197992826183046  0.04826238734020588 0.02864171628815487 0.01212804012558128  0.05076615004978164 0.02752612244101166 0.01228105347577096  0.05322905875607448 0.02632360328708557 0.01243819620492541  0.05564430336699785 0.02502846126780267 0.01259856655803164  0.05800358354963095 0.02363429030362681 0.01276110744812928  0.06029668778037241 0.02213393254809503 0.01292456456828294  0.06251090678733648 0.02051951398127304 0.01308742906398486  0.06463041230901823 0.0187825009225275 0.01324787434466789  0.06663526505825626 0.0169140979656456 0.01340366249880667  0.06850043492016261 0.01490588542164794 0.01355204910761229  0.07019471290443655 0.01275108936049117 0.01368967983248436  0.0716799411059043 0.01044670165780264 0.01381251759901636  0.07291143962239621 0.007996780754396712 0.01391590215654635  0.07384063855330192 0.005416521759112708 0.0139948180365361  0.0744212996048168 0.002735868634418235 0.01404452668373925  0 0.03818022053624093 0.007954305890032669  0 0.0386485550800568 0.005223900353509794  0 0.03892188640900901 0.002467137451870614  0 0.03899882924987581 -0.0003020723740279004  0 0.03887896403891605 -0.003069759134071638  0 0.03856297443288262 -0.005821959123623837  0 0.03805243651493732 -0.008544788992488426  0 0.03734987305474106 -0.01122450076317837  0 0.0364588182643549 -0.01384756611944512  0 0.03538379710839578 -0.01640075674561399  0 0.03413026804030372 -0.01887120576468214  0 0.03270456217443849 -0.02124645628859317  0 0.03111384220046394 -0.02351450857304086  0 0.02936609455630221 -0.02566388716363386  0 0.02747015794283239 -0.0276837578827289  0 0.02543566645499161 -0.02956399642150021  0 0.02327281061292365 -0.03129503778521844  0 0.02099250361905348 -0.0328681404127133  0 0.01860628311304275 -0.03427540882655737  0 0.01612620126243292 -0.03550976980370774  0 0.0135647614578136 -0.03656498450418021  0 0.01093487192952577 -0.03743569284011576  0 0.0082497977387426 -0.03811747499941738  0 0.005523094944402488 -0.03860690743980565  0 0.002768530966723273 -0.03890157629133054  0 -0.03776312198673543 0.01342251633990897  0 -0.03792137816285516 0.01620665048062016  0 -0.03799447902307176 0.01899432166920657  0 -0.03798264364906404 0.02178292606123328  0 -0.03788583734713112 0.02456987446975116  0 -0.03770377415853698 0.02735255285363422  0 -0.03743590157800674 0.03012828261449654  0 -0.03708140525913342 0.03289428108053905  0 -0.03663920529391888 0.0356476
[...]
<PointData  Vectors="fiber"> 
<DataArray  type="Float64"  Name="fiber"  NumberOfComponents="3" format="ascii">8.6616599999999999e-01 -4.9974600000000002e-01 3.3692599999999998e-03  -5.4201300000000004e-03 4.9004999999999999e-01 -8.7167700000000004e-01  8.6773800000000001e-01 3.4753100000000002e-02 4.9580500000000000e-01  8.6308600000000002e-01 -6.0267200000000002e-03 -5.0502199999999997e-01  8.6586300000000005e-01 5.0027900000000003e-01 -1.2570599999999999e-03  -8.6603200000000002e-01 -4.9996099999999999e-01 -5.1284700000000004e-03  -8.6583500000000002e-01 5.0031099999999995e-01 -4.2503500000000000e-03  -8.6745099999999997e-01 -3.5364400000000001e-01 -3.4994999999999998e-01  -8.6599800000000005e-01 5.0003900000000001e-01 2.7298000000000001e-03  -8.5878100000000002e-01 -2.8422999999999998e-01 4.2627199999999998e-01  -8.6609599999999998e-01 -4.9984600000000001e-01 5.5891500000000002e-03  5.8335899999999996e-01 4.0510499999999999e-01 7.0397600000000005e-01  8.6564700000000006e-01 -5.0020900000000001e-01 2.1140800000000001e-02  8.6537399999999998e-01 -4.9985099999999999e-01 3.5727399999999999e-02  8.6435799999999996e-01 -5.0069100000000000e-01 4.6834199999999999e-02  8.6398900000000001e-01 -4.9977400000000000e-01 6.1233099999999999e-02  8.6282700000000001e-01 -4.9911499999999998e-01 8.0088900000000005e-02  8.6129800000000001e-01 -4.9959300000000001e-01 9.2592800000000003e-02  8.5998900000000000e-01 -4.9770700000000001e-01 1.1272699999999999e-01  8.5723800000000006e-01 -5.0185900000000006e-01 1.1524000000000000e-01  8.5603799999999997e-01 -5.0085500000000005e-01 1.2783700000000001e-01  8.5231900000000005e-01 -5.0253099999999995e-01 1.4496300000000001e-01  8.4887900000000005e-01 -5.0037900000000002e-01 1.7036899999999999e-01  8.4575900000000004e-01 -4.9806400000000001e-01 1.9137299999999999e-01  8.4127099999999999e-01 -5.0033200000000000e-01 2.0477000000000001e-01  8.3732499999999999e-01 -4.9873299999999998e-01 2.2394700000000001e-01  8.3036299999999996e-01 -4.9976199999999998e-01 2.4644300000000000e-01  8.2467699999999999e-01 -5.0312199999999996e-01 2.5840900000000000e-01  8.1932600000000000e-01 -4.9220399999999997e-01 2.9400799999999999e-01  8.1179900000000005e-01 -4.9960500000000002e-01 3.0228699999999997e-01  8.0117799999999995e-01 -4.9445200000000000e-01 3.3709200000000000e-01  7.8981400000000002e-01 -4.9554900000000002e-01 3.6142099999999999e-01  7.7879900000000002e-01 -5.0338600000000000e-01 3.7426599999999999e-01  7.5876699999999997e-01 -5.0704800000000005e-01 4.0886899999999998e-01  7.4465499999999996e-01 -5.0409599999999999e-01 4.3746400000000002e-01  7.2425499999999998e-01 -4.9029400000000001e-01 4.8483599999999999e-01  7.0181099999999996e-01 -4.9677700000000002e-01 5.1056299999999999e-01  6.6588199999999997e-01 -4.9812099999999998e-01 5.5540699999999998e-01  6.2527900000000003e-01 -5.0969500000000001e-01 5.9096300000000002e-01  5.8587100000000003e-01 -4.9067000000000000e-01 6.4497899999999997e-01  5.2887399999999996e-01 -5.0104300000000002e-01 6.8501699999999999e-01  4.4941199999999998e-01 -5.3612800000000005e-01 7.1455999999999997e-01  3.6330600000000002e-01 -5.0969900000000001e-01 7.7988199999999996e-01  2.8775800000000001e-01 -5.0093500000000002e-01 8.1624699999999994e-01  1.7802200000000001e-01 -4.5027800000000001e-01 8.7496200000000002e-01  7.2203799999999999e-02 6.0995400000000000e-01 7.8914099999999998e-01  7.4644900000000000e-02 5.1966199999999996e-01 -8.5110500000000000e-01  1.7538799999999999e-01 5.3474699999999997e-01 -8.2661099999999998e-01  2.4706900000000001e-01 4.4642799999999999e-01 -8.6003499999999999e-01  3.1253300000000001e-01 5.1880300000000001e-01 -7.9571700000000001e-01  3.2812400000000003e-01 4.8794599999999999e-01 -8.0885300000000004e-01  8.6687899999999996e-01 6.8282999999999996e-02 4.9381999999999998e-01  8.6696799999999996e-01 5.0806799999999999e-02 4.9576700000000001e-01  8.6685000000000001e-01 2.4319199999999999e-02 4.9797599999999997e-01  8.6690500000000004e-01 -5.0885300000000000e-03 4.9844699999999997e-01  8.6700299999999997e-01 -3.6209199999999997e-02 4.9698599999999998e-01  8.6693799999999999e-01 -6.9796700000000003e-02 4.9350500000000003e-01  8.6638999999999999e-01 -1.1056400000000000e-01 4.8697499999999999e-01  8.6676600000000004e-01 -1.4307400000000001e-01 4.7775200000000001e-01  8.6685199999999996e-01 -1.7444699999999999e-01 4.6704899999999999e-01  8.6661400000000000e-01 -2.1181100000000000e-01 4.5179300000000000e-01  8.6650499999999997e-01 -2.4034700000000001e-01 4.3749500000000002e-01  8.6666200000000004e-01 -2.6434299999999999e-01 4.2310799999999998e-01  8.6666200000000004e-01 -2.9352400000000001e-01 4.0341100000000002e-01  8.6660999999999999e-01 -3.2262900000000000e-01 3.8065300000000002e-01  8.6645099999999997e-01 -3.5162300000000002e-01 3.5443599999999997e-01  8.6643499999999996e-01 -3.7631199999999998e-01 3.2814599999999999e-01  8.6640300000000003e-01 -3.9621899999999999e-01 3.0390299999999998e-01  8.6630300000000005e-01 -4.1959000000000002e-01 2.7104000000000000e-01  8.6627799999999999e-01 -4.3731900000000001e-01 2.4148200000000000e-01  8.6624199999999996e-01 -4.5189900000000000e-01 2.1310200000000001e-01  8.6622299999999997e-01 -4.6465800000000002e-01 1.8371199999999999e-01  8.6616899999999997e-01 -4.7797800000000001e-01 1.4590600000000001e-01  8.6612199999999995e-01 -4.8702499999999999e-01 1.1242700000000000e-01  8.6612900000000004e-01 -4.9381999999999998e-01 7.7218800000000004e-02  8.6620799999999998e-01 -4.9790600000000002e-01 4.2118799999999998e-02  1.6357500000000000e-01 6.1094800000000005e-01 -7.7458800000000005e-01  2.0685600000000001e-01 7.2743300000000000e-01 -6.5425699999999998e-01  3.4502500000000003e-01 7.5485500000000005e-01 -5.5780900000000000e-01  4.8066599999999998e-01 7.5799300000000003e-01 -4.4091500000000000e-01  5.7274800000000003e-01 7.6208399999999998e-01 -3.0197400000000002e-01  6.5836799999999995e-01 7.1745199999999998e-01 -2.2762700000000000e-01  7.1672300000000000e-01 6.7664599999999997e-01 -1.6869700000000001e-01  7.6195999999999997e-01 6.4228099999999999e-01 -8.3016300000000001e-02  7.9805599999999999e-01 6.0135799999999995e-01 -3.8410199999999999e-02  8.3042000000000005e-01 5.5440699999999998e-01 5.5099700000000001e-02  8.5055999999999998e-01 5.1519599999999999e-01 1.0545100000000000e-01  8.7359799999999999e-01 4.6937299999999998e-01 1.2851099999999999e-01  8.7444000000000000e-01 4.4411400000000001e-01 1.9523599999999999e-01  8.9586399999999999e-01 3.9310499999999998e-01 2.0711299999999999e-01  8.9298900000000003e-01 3.7691500000000000e-01 2.4597900000000000e-01  9.0455900000000000e-01 3.3352100000000001e-01 2.6558700000000002e-01  9.0108100000000002e-01 3.2164599999999999e-01 2.9085400000000000e-01  9.0275399999999995e-01 2.8995100000000001e-01 3.1774900000000000e-01  9.0452399999999999e-01 2.7052399999999999e-01 3.2962399999999997e-01  9.0464800000000001e-01 2.5217699999999998e-01 3.4353899999999998e-01  9.0718799999999999e-01 2.0764700000000000e-01 3.6591400000000002e-01  9.0367699999999995e-01 1.9678499999999999e-01 3.8032100000000002e-01  9.0474699999999997e-01 1.6314000000000001e-01 3.9346999999999999e-01  9.0008600000000005e-01 1.5623699999999999e-01 4.0673799999999999e-01  8.9692200000000000e-01 1.4486099999999999e-01 4.1778700000000002e-01  8.9339500000000005e-01 1.1414299999999999e-01 4.3453100000000000e-01  8.9025699999999997e-01 1.0347500000000000e-01 4.4355000000000000e-01  8.8976400000000000e-01 7.7006000000000005e-02 4.4987800000000000e-01  8.8408500000000001e-01 5.6845000000000000e-02 4.6385700000000002e-01  8.8114300000000001e-01 3.9968700000000003e-02 4.7115699999999999e-01  8.7429400000000002e-01 2.6269500000000001e-02 4.8468600000000001e-01  8.7100100000000003e-01 1.5769700000000001e-02 4.9102699999999999e-01  8.6031599999999997e-01 -1.2743600000000001e-02 -5.0960099999999997e-01  8.5532200000000003e-01 -3.2075100000000002e-02 -5.1710299999999998e-01  8.5050599999999998e-01 -3.1966700000000001e-02 -5.2499300000000004e-01  8.4182999999999997e-01 -5.6555300000000003e-02 -5.3677200000000003e-01  8.3223899999999995e-01 -8.9777700000000002e-02 -5.4709900000000000e-01  8.2584400000000002e-01 -1.0341100000000000e-01 -5.5433500000000002e-01  8.1677000000000000e-01 -1.1216300000000000e-01 -5.6595600000000001e-01  8.0936200000000003e-01 -1.1636199999999999e-01 -5.7566700000000004e-01  7.9210999999999998e-01 -1.4492900000000000e-01 -5.9292199999999995e-01  7.8412099999999996e-01 -1.6165099999999999e-01 -5.9918600000000000e-01  7.7100500000000005e-01 -1.8114800000000000e-01 -6.1052200000000001e-01  7.6519199999999998e-01 -1.7908299999999999e-01 -6.1839400000000000e-01  7.5382600000000000e-01 -1.5756300000000001e-01 -6.3790300000000000e-01  7.3422299999999996e-01 -1.7568800000000001e-01 -6.5578199999999998e-01  7.2497199999999995e-01 -1.9072200000000000e-01 -6.6184699999999996e-01  6.9584699999999999e-01 -2.1648700000000001e-01 -6.8478499999999998e-01  6.8310000000000004e-01 -2.3633799999999999e-01 -6.9102799999999998e-01  6.4850099999999999e-01 -2.6474599999999998e-01 -7.1369199999999999e-01  6.1843199999999998e-01 -2.5135900000000000e-01 -7.4455400000000005e-01  5.8330800000000005e-01 -2.6655699999999999e-01 -7.6726799999999995e-01  5.4125900000000005e-01 -2.7420800000000001e-01 -7.9488899999999996e-01  5.1489900000000000e-01 -2.5406400000000001e-01 -8.1873700000000005e-01  4.4748100000000002e-01 -2.9747099999999999e-01 -8.4336900000000004e-01  4.4964199999999999e-01 -1.8749299999999999e-01 -8.7330900000000000e-01  3.7835700000000000e-01 -2.4623900000000001e-01 -8.9230699999999996e-01  2.3853500000000000e-01 -2.5642799999999999e-01 -9.3666799999999995e-01  1.9647300000000001e-01 -1.6906099999999999e-01 -9.6582500000000004e-01  1.5351500000000001e-01 -1.1736800000000000e-01 -9.8115100000000000e-01  3.6846999999999998e-02 -5.3999999999999999e-02 -9.9786100000000000e-01  6.2884300000000004e-02 5.2468200000000000e-02 -9.9664100000000000e-01  -2.0880900000000001e-02 1.8616199999999999e-01 -9.8229699999999998e-01  3.1092399999999999e-02 3.6356300000000003e-01 -9.3105099999999996e-01  8.6508700000000005e-01 6.6440200000000005e-02 -4.9720199999999998e-01  8.6502400000000002e-01 4.6850299999999998e-02 -4.9953799999999998e-01  8.6509599999999998e-01 1.5210800000000000e-02 -5.0137600000000004e-01  8.6518799999999996e-01 -8.3287499999999993e-03 -5.0137900000000002e-01  8.6490299999999998e-01 -4.3306600000000001e-02 -5.0006799999999996e-01  8.6466600000000005e-01 -8.1743399999999994e-02 -4.9565100000000001e-01  8.6509300000000000e-01 -1.1490800000000000e-01 -4.8827300000000001e-01  8.6519400000000002e-01 -1.5078600000000000e-01 -4.7822900000000002e-01  8.6524599999999996e-01 -1.8268499999999999e-01 -4.6687899999999999e-01  8.6541900000000005e-01 -2.1575500000000000e-01 -4.5221699999999998e-01  8.6528300000000002e-01 -2.4711600000000000e-01 -4.3614100000000000e-01  8.6538899999999996e-01 -2.8097299999999997e-01 -4.1491699999999998e-01  8.6553400000000003e-01 -3.0488399999999999e-01 -3.9736300000000002e-01  8.6551000000000000e-01 -3.2962999999999998e-01 -3.7714300000000001e-01  8.6561399999999999e-01 -3.5842600000000002e-01 -3.4963400000000000e-01  8.6570700000000000e-01 -3.8270300000000002e-01 -3.2262900000000000e-01  8.6563999999999997e-01 -4.0526299999999998e-01 -2.9398800000000003e-01  8.6568500000000004e-01 -4.2283900000000002e-01 -2.6794899999999999e-01  8.6577499999999996e-01 -4.4080100000000000e-01 -2.3691599999999999e-01  8.6580900000000005e-01 -4.5522099999999999e-01 -2.0772199999999999e-01  8.6577899999999997e-01 -4.7173900000000002e-01 -1.6700100000000001e-01  8.6584000000000005e-01 -4.8274699999999998e-01 -1.3144200000000000e-01  8.6590900000000004e-01 -4.8882199999999998e-01 -1.0609100000000000e-01  8.6582700000000001e-01 -4.9604799999999999e-01 -6.5422499999999995e-02  8.6574300000000004e-01 -4.9952099999999999e-01 -3.1125500000000000e-02  8.6817500000000003e-01 -4.5708699999999998e-02 4.9414799999999998e-01  8.6853499999999995e-01 -5.6511100000000002e-02 4.9239699999999997e-01  8.6900699999999997e-01 -5.9131799999999998e-02 4.9125300000000000e-01  8.6949600000000005e-01 -2.6168899999999998e-02 4.9324699999999999e-01  8.7001300000000004e-01 1.5288500000000000e-02 4.9279299999999998e-01  8.6988900000000002e-01 3.9535599999999997e-02 4.9165999999999999e-01  8.6857399999999996e-01 5.5623699999999998e-02 4.9242799999999998e-01  8.6905800000000000e-01 7.2060700000000005e-02 4.8943300000000001e-01  8.7063999999999997e-01 9.2114799999999997e-02 4.8321900000000001e-01  8.6934999999999996e-01 1.0478100000000000e-01 4.8296099999999997e-01  8.7012999999999996e-01 1.2119600000000000e-01 4.7768699999999997e-01  8.7006799999999995e-01 1.3886899999999999e-01 4.7296600000000000e-01  8.6977300000000002e-01 1.5523799999999999e-01 4.6839700000000001e-01  8.7015900000000002e-01 1.7353099999999999e-01 4.6120499999999998e-01  8.6920799999999998e-01 1.8955900000000001e-01 4.5666699999999999e-01  8.6941800000000002e-01 2.0590000000000000e-01 4.4913100000000000e-01  8.6964300000000005e-01 2.2775899999999999e-01 4.3800400000000000e-01  8.6919400000000002e-01 2.4427399999999999e-01 4.2992100000000000e-01  8.6897000000000002e-01 2.6622699999999999e-01 4.1715099999999999e-01  8.6926000000000003e-01 2.9039999999999999e-01 4.0006999999999998e-01  8.6897899999999995e-01 3.1153799999999998e-01 3.8447300000000001e-01  8.6911499999999997e-01 3.3540300000000001e-01 3.6351699999999998e-01  8.6908900000000000e-01 3.5878700000000002e-01 3.4052300000000002e-01  8.6884399999999995e-01 3.8789099999999999e-01 3.0765500000000001e-01  8.6836500000000005e-01 4.1055399999999997e-01 2.7818799999999999e-01  8.6776600000000004e-01 4.3389800000000001e-01 2.4231100000000000e-01  8.6757499999999999e-01 4.5460899999999999e-01 2.0160600000000001e-01  8.6712400000000001e-01 4.7177999999999998e-01 1.5975000000000000e-01  8.6668299999999998e-01 4.8648700000000000e-01 1.1041100000000000e-01  8.6673100000000003e-01 4.9612099999999998e-01 5.1388799999999998e-02  8.6370599999999997e-01 -5.7147099999999999e-02 -5.0074600000000002e-01  8.6315100000000000e-01 -6.9885500000000003e-02 -5.0008699999999995e-01  8.6289400000000005e-01 -6.3340900000000006e-02 -5.0139999999999996e-01  8.6304400000000003e-01 -2.7243500000000000e-02 -5.0439299999999998e-01  8.6197400000000002e-01 5.9811500000000002e-03 -5.0691799999999998e-01  8.6185900000000004e-01 2.6153300000000001e-02 -5.0647299999999995e-01  8.6240000000000006e-01 4.8741300000000001e-02 -5.0387599999999999e-01  8.6305299999999996e-01 6.7348099999999994e-02 -5.0060300000000002e-01  8.6124800000000001e-01 7.9941399999999996e-02 -5.0185900000000006e-01  8.6264399999999997e-01 9.9273200000000006e-02 -4.9597300000000000e-01  8.6182899999999996e-01 1.1252800000000000e-01 -4.9455800000000000e-01  8.6220100000000000e-01 1.2959699999999999e-01 -4.8970799999999998e-01  8.6290199999999995e-01 1.5062500000000001e-01 -4.8240300000000003e-01  8.6152300000000004e-01 1.6779400000000000e-01 -4.7919000000000000e-01  8.6254399999999998e-01 1.8597600000000000e-01 -4.7056500000000001e-01  8.6229199999999995e-01 2.0419499999999999e-01 -4.6341800000000000e-01  8.6272099999999996e-01 2.2531899999999999e-01 -4.5270700000000003e-01  8.6324400000000001e-01 2.4709900000000001e-01 -4.4017400000000001e-01  8.6303700000000005e-01 2.6888899999999999e-01 -4.2762899999999998e-01  8.6269499999999999e-01 2.9065999999999997e-01 -4.1385300000000003e-01  8.6301799999999995e-01 3.1279000000000001e-01 -3.9668900000000001e-01  8.6338899999999996e-01 3.3765400000000001e-01 -3.7490000000000001e-01  8.6335600000000001e-01 3.6234400000000000e-01 -3.5117300000000001e-01  8.6348000000000003e-01 3.8501999999999997e-01 -3.2582600000000000e-01  8.6390500000000003e-01 4.0978500000000001e-01 -2.9282300000000000e-01  8.6372099999999996e-01 4.3479800000000002e-01 -2.5482700000000003e-01  8.6423899999999998e-01 4.5715800000000001e-01 -2.0999399999999999e-01  8.6470499999999995e-01 4.7259899999999999e-01 -1.7010400000000001e-01  8.6551100000000003e-01 4.8620999999999998e-01 -1.2037700000000000e-01  8.6577700000000002e-01 4.9598799999999998e-01 -6.6534099999999999e-02  -8.6608600000000002e-01 -4.9694600000000000e-01 5.4220200000000003e-02  -8.6597800000000003e-01 -4.8841800000000002e-01 1.0737800000000000e-01  -8.6577499999999996e-01 -4.7337299999999999e-01 1.6233200000000000e-01  -8.6571600000000004e-01 -4.5362900000000000e-01 2.1155900000000000e-01  -8.6562899999999998e-01 -4.3598199999999998e-01 2.4618399999999999e-01  -8.6552700000000005e-01 -4.0604400000000002e-01 2.9324200000000000e-01  -8.6542100000000000e-01 -3.7149799999999999e-01 3.3620800000000001e-01  -8.6521499999999996e-01 -3.3029599999999998e-01 3.7723600000000002e-01  -8.6506000000000005e-01 -2.8304200000000002e-01 4.1419600000000001e-01  -8.6500600000000005e-01 -2.3387300000000000e-01 4.4392300000000001e-01  -8.6513799999999996e-01 -1.8514500000000000e-01 4.6610900000000000e-01  -8.6511499999999997e-01 -1.3561699999999999e-01 4.8289100000000001e-01  -8.6471200000000004e-01 -8.7215000000000001e-02 4.9463800000000002e-01  -8.6455400000000004e-01 -3.1874000000000000e-02 5.0152799999999997e-01  -8.6486499999999999e-01 1.9734200000000000e-02 5.0161599999999995e-01  -8.6492899999999995e-01 8.0471699999999993e-02 4.9540200000000001e-01  -8.6487499999999995e-01 1.3853399999999999e-01 4.8249300000000001e-01  -8.6495999999999995e-01 1.8622100000000000e-01 4.6600999999999998e-01  -8.6550700000000003e-01 2.3645800000000000e-01 4.4157099999999999e-01  -8.6551199999999995e-01 2.7695199999999998e-01 4.1735699999999998e-01  -8.6574600000000002e-01 3.2540000000000002e-01 3.8026100000000002e-01  -8.6570999999999998e-01 3.5617300000000002e-01 3.5169099999999998e-01  -8.6582999999999999e-01 3.9739799999999997e-01 3.0399500000000002e-01  -8.6583299999999996e-01 4.2945200000000000e-01 2.5672000000000000e-01  -8.6590400000000001e-01 4.5247700000000002e-01 2.1324699999999999e-01  -8.6582300000000001e-01 4.7001100000000001e-01 1.7158100000000001e-01  -8.6590699999999998e-01 4.8849999999999999e-01 1.0757600000000000e-01  -8.6591600000000002e-01 4.9704100000000001e-01 5.6034500000000001e-02  -8.6612199999999995e-01 4.9681100000000000e-01 -5.4875000000000000e-02  -8.6614300000000000e-01 4.8703200000000002e-01 -1.1223200000000000e-01  -8.6617000000000000e-01 4.7219600000000000e-01 -1.6364400000000001e-01  -8.6609400000000003e-01 4.5200400000000002e-01 -2.1348100000000000e-01  -8.6611000000000005e-01 4.2592200000000002e-01 -2.6162000000000002e-01  -8.6622800000000000e-01 3.9640500000000001e-01 -3.0415799999999998e-01  -8.6631800000000003e-01 3.6306300000000002e-01 -3.4304299999999999e-01  -8.6625799999999997e-01 3.2745400000000002e-01 -3.7732100000000002e-01  -8.6640899999999998e-01 2.9102000000000000e-01 -4.0576200000000001e-01  -8.6674899999999999e-01 2.4452599999999999e-01 -4.3468800000000002e-01  -8.6703399999999997e-01 1.7996400000000001e-01 -4.6461200000000002e-01  -8.6724800000000002e-01 1.3814299999999999e-01 -4.7832799999999998e-01  -8.6701499999999998e-01 8.2362000000000005e-02 -4.9142799999999998e-01  -8.6735200000000001e-01 3.3706899999999998e-02 -4.9655199999999999e-01  -8.6745399999999995e-01 -1.6651599999999999e-02 -4.9723800000000001e-01  -8.6732299999999996e-01 -8.0759499999999998e-02 -4.9115100000000000e-01  -8.6705600000000005e-01 -1.3210900000000000e-01 -4.8037600000000003e-01  -8.6714800000000003e-01 -1.7519899999999999e-01 -4.6621800000000002e-01  -8.6701200000000000e-01 -2.3116900000000001e-01 -4.4141999999999998e-01  -8.6677199999999999e-01 -2.8081600000000001e-01 -4.1212700000000002e-01  -8.6662499999999998e-01 -3.2147799999999999e-01 -3.8159300000000002e-01  -8.6663400000000002e-01 -3.5576500000000000e-01 -3.4982400000000002e-01  -8.6658000000000002e-01 -3.8955499999999998e-01 -3.1190600000000002e-01  -8.6652499999999999e-01 -4.2746800000000001e-01 -2.5769399999999998e-01  -8.6639299999999997e-01 -4.5299499999999998e-01 -2.1013899999999999e-01  -8.6634500000000003e-01 -4.7009499999999999e-01 -1.6869400000000001e-01  -8.6607400000000001